#     Step Nr.          Time[fs]        Kin.[a.u.]          Temp[K]            Pot.[a.u.]        Cons Qty[a.u.]        UsedTime[s]
         0            0.000000         0.369947368       330.000000000     -4559.295399625     -4558.920692595         0.000000000
         1            0.500000         0.386605570       344.859429055     -4559.313752424     -4558.920958092       728.643805557
         2            1.000000         0.408665705       364.537483079     -4559.342850521     -4558.921272394       122.812875511
         3            1.500000         0.437471484       390.232778812     -4559.379047263     -4558.921484156       117.358717281
         4            2.000000         0.470159160       419.390799671     -4559.420017826     -4558.921524534       116.910199155
         5            2.500000         0.514260635       458.730144337     -4559.465497194     -4558.921449546       120.606134170
         6            3.000000         0.549675009       490.320430558     -4559.516128670     -4558.921680161       115.213313564
         7            3.500000         0.589059110       525.451788205     -4559.569187151     -4558.922211919       117.486864141
         8            4.000000         0.632964075       564.615842012     -4559.618464671     -4558.922834447       113.594074460
         9            4.500000         0.650135887       579.933420515     -4559.656081051     -4558.923325701       119.021481344
        10            5.000000         0.667965701       595.837949288     -4559.676986624     -4558.923315325       113.404133775
        11            5.500000         0.653822295       583.221765814     -4559.681516225     -4558.923141911       113.423725764
        12            6.000000         0.614644243       548.274207617     -4559.672844244     -4558.922859060       126.967108306
        13            6.500000         0.594013042       529.870788976     -4559.655676785     -4558.922687350       116.547100821
        14            7.000000         0.562982574       502.191028503     -4559.633590181     -4558.922523162       115.542132123
        15            7.500000         0.541156032       482.721342990     -4559.609817254     -4558.922162463       111.839763998
        16            8.000000         0.526015908       469.216067947     -4559.589505119     -4558.921665690       121.706986657
        17            8.500000         0.511671510       456.420596054     -4559.577766079     -4558.922073808       109.107442317
        18            9.000000         0.497751155       444.003377969     -4559.574362338     -4558.921918984       120.146085031
        19            9.500000         0.490903081       437.894766837     -4559.580806293     -4558.921959633       113.817351914
        20           10.000000         0.507960738       453.110517534     -4559.596275524     -4558.922095264       119.134330938
        21           10.500000         0.510907202       455.738818602     -4559.617739858     -4558.922296418       112.571806751
        22           11.000000         0.528060320       471.039722219     -4559.643084874     -4558.922356149       112.821857037
        23           11.500000         0.537121151       479.122153542     -4559.672039669     -4558.922417604       119.630383501
        24           12.000000         0.557416423       497.225916967     -4559.705228475     -4558.922445195       113.902050173
        25           12.500000         0.592541595       528.558230385     -4559.742797550     -4558.922745927       121.254604854
        26           13.000000         0.608662374       542.938267559     -4559.779414331     -4558.923061417       113.337398836
        27           13.500000         0.631471981       563.284865715     -4559.809908047     -4558.923418458       117.122908066
        28           14.000000         0.639628605       570.560727139     -4559.829020770     -4558.923528516       116.457232072
        29           14.500000         0.620308410       553.326750807     -4559.835098733     -4558.923604798       115.755296426
        30           15.000000         0.598097248       533.513977349     -4559.828724307     -4558.923492538       116.182175428
        31           15.500000         0.576947386       514.647903260     -4559.811966246     -4558.923350731       116.539737700
        32           16.000000         0.542482207       483.904315833     -4559.787730412     -4558.923020901       123.134995317
        33           16.500000         0.509852316       454.797840683     -4559.759221315     -4558.922683557       116.185911842
        34           17.000000         0.484284083       431.990496455     -4559.731006903     -4558.922351125       115.953766763
        35           17.500000         0.450734307       402.063466300     -4559.707070893     -4558.922185557       116.067521063
        36           18.000000         0.432088205       385.430792927     -4559.689591138     -4558.922198642       123.164983813
        37           18.500000         0.420936295       375.483080484     -4559.679006616     -4558.922205494       123.261069226
        38           19.000000         0.411926285       367.445981525     -4559.675388382     -4558.922335523       116.631648465
        39           19.500000         0.410486447       366.161619526     -4559.676854710     -4558.922450393       117.476312195
        40           20.000000         0.410418546       366.101050236     -4559.681013081     -4558.922351719       120.823455045
        41           20.500000         0.424419615       378.590266606     -4559.688481134     -4558.922218241       118.595007204
        42           21.000000         0.432525907       385.821231644     -4559.701362615     -4558.922151519       121.969289831
        43           21.500000         0.448585338       400.146545417     -4559.721556892     -4558.922185511       119.165396579
        44           22.000000         0.467666350       417.167167122     -4559.749337829     -4558.922365713       122.136877648
        45           22.500000         0.497446269       443.731413442     -4559.783235354     -4558.922617169       117.860374155
        46           23.000000         0.526649792       469.781504354     -4559.819123751     -4558.923372837       124.922482302
        47           23.500000         0.553522046       493.752059939     -4559.849908951     -4558.923534699       110.676938692
        48           24.000000         0.563861640       502.975171708     -4559.872226739     -4558.923684936       117.572568754
        49           24.500000         0.573676833       511.730508179     -4559.883994682     -4558.923541792       110.266624620
        50           25.000000         0.567931369       506.605446818     -4559.884919622     -4558.923255068       117.246169069
        51           25.500000         0.551272112       491.745076867     -4559.877369041     -4558.922997090       107.065703803
        52           26.000000         0.524990662       468.301529447     -4559.865349251     -4558.922703176       124.007314771
        53           26.500000         0.508943168       453.986863296     -4559.853337131     -4558.922574716       117.753657267
        54           27.000000         0.490936381       437.924471122     -4559.843409315     -4558.922430166       117.543531877
        55           27.500000         0.480081077       428.241336032     -4559.836228779     -4558.922551853       118.815784572
        56           28.000000         0.466278537       415.929211794     -4559.830622235     -4558.922585065       117.266110142
        57           28.500000         0.455289789       406.127041658     -4559.825752011     -4558.922612611       116.204809104
        58           29.000000         0.450205001       401.591315881     -4559.821211276     -4558.922614709       116.460040865
        59           29.500000         0.449636293       401.084016918     -4559.817598690     -4558.922512924       117.545467772
        60           30.000000         0.450412141       401.776087884     -4559.816578038     -4558.922423531       118.782749393
        61           30.500000         0.449851075       401.275606721     -4559.820095941     -4558.922385417       116.710144738
        62           31.000000         0.457165815       407.800492197     -4559.829421671     -4558.922392748       118.288958493
        63           31.500000         0.460989276       411.211091545     -4559.844523597     -4558.922517706       117.217751951
        64           32.000000         0.472392118       421.382640098     -4559.863858403     -4558.922889301       118.762683773
        65           32.500000         0.478350279       426.697431836     -4559.884320500     -4558.923260124       120.928463891
        66           33.000000         0.482907040       430.762148651     -4559.902164306     -4558.923387091       118.163242927
        67           33.500000         0.477045750       425.533767185     -4559.915181610     -4558.923576451       117.145801861
        68           34.000000         0.488572878       435.816182658     -4559.921555253     -4558.923440532       116.898598985
        69           34.500000         0.486700107       434.145634960     -4559.922092988     -4558.923344673       116.814579276
        70           35.000000         0.482376542       430.288934105     -4559.918242634     -4558.923199824       118.235926954
        71           35.500000         0.470495328       419.690668182     -4559.912414412     -4558.922906835       117.139386032
        72           36.000000         0.468711021       418.099033272     -4559.906712410     -4558.922844382       117.130644319
        73           36.500000         0.462503561       412.561861795     -4559.901368851     -4558.922914256       117.105338790
        74           37.000000         0.460656494       410.914243440     -4559.895654093     -4558.923011248       110.760023681
        75           37.500000         0.451475518       402.724640247     -4559.888853970     -4558.923028044       117.142727794
        76           38.000000         0.429800768       383.390356889     -4559.880965059     -4558.922776694       110.727736352
        77           38.500000         0.417802790       372.687934990     -4559.873702352     -4558.922673252       117.634738729
        78           39.000000         0.420050948       374.693334212     -4559.868270088     -4558.922650599       110.694101127
        79           39.500000         0.421208150       375.725579573     -4559.866067918     -4558.922743459       117.690248272
        80           40.000000         0.422640160       377.002959787     -4559.867658612     -4558.922759950       117.855464668
        81           40.500000         0.428369778       382.113886234     -4559.872811728     -4558.922829294       117.857166843
        82           41.000000         0.431046204       384.501308317     -4559.880447351     -4558.922901737       117.839051347
        83           41.500000         0.442075698       394.339824459     -4559.889623643     -4558.922981584       117.954215957
        84           42.000000         0.458319302       408.829424318     -4559.899387990     -4558.923122698       118.104417997
        85           42.500000         0.464513125       414.354430969     -4559.908499462     -4558.923106279       118.008240527
        86           43.000000         0.466087521       415.758821332     -4559.916695046     -4558.923141280       117.641024422
        87           43.500000         0.471012710       420.152182329     -4559.923851368     -4558.923014494       118.828999861
        88           44.000000         0.478647970       426.962978291     -4559.930262420     -4558.923119684       118.112487382
        89           44.500000         0.476115252       424.703745848     -4559.935367738     -4558.923128379       117.648185060
        90           45.000000         0.471698296       420.763737832     -4559.938827757     -4558.923157893       118.368049481
        91           45.500000         0.477426411       425.873324314     -4559.940153485     -4558.923202337       117.380568268
        92           46.000000         0.467844359       417.325953839     -4559.938871720     -4558.923239508       117.494845118
        93           46.500000         0.451911017       403.113113944     -4559.934884142     -4558.923228801       118.579084660
        94           47.000000         0.451711611       402.935239758     -4559.928698040     -4558.923154884       117.731500535
        95           47.500000         0.438075295       390.771389562     -4559.921472438     -4558.923046480       118.412371147
        96           48.000000         0.426511868       380.456596274     -4559.914913055     -4558.923053577       118.411911051
        97           48.500000         0.422358439       376.751659346     -4559.910321940     -4558.923155533       117.295727036
        98           49.000000         0.412608212       368.054273845     -4559.908522309     -4558.923024746       118.320774891
        99           49.500000         0.418471164       373.284137124     -4559.910537965     -4558.923039475       117.661388111
       100           50.000000         0.426134521       380.119994865     -4559.915974627     -4558.923204666       116.468313406
       101           50.500000         0.437262222       390.046113426     -4559.923065963     -4558.923311712       117.211711234
       102           51.000000         0.445761826       397.627919854     -4559.930228849     -4558.923438954       117.017098376
       103           51.500000         0.441055310       393.429619599     -4559.936328491     -4558.923444048       117.512325043
       104           52.000000         0.445551798       397.440571117     -4559.941096502     -4558.923293127       113.721289134
       105           52.500000         0.453469666       404.503458050     -4559.945738392     -4558.923264925       117.459175151
       106           53.000000         0.463510718       413.460264910     -4559.951362848     -4558.923277362       117.495051249
       107           53.500000         0.463505151       413.455298785     -4559.958041421     -4558.923259911       119.587937335
       108           54.000000         0.453127173       404.197947893     -4559.965247879     -4558.923386052       117.381211439
       109           54.500000         0.464352483       414.211135020     -4559.971537003     -4558.923470487       117.039303166
       110           55.000000         0.462354780       412.429146710     -4559.975256582     -4558.923664889       117.062822867
       111           55.500000         0.447264002       398.967888835     -4559.975239733     -4558.923646218       122.530891722
       112           56.000000         0.434989193       388.018528747     -4559.972011094     -4558.923406703       117.336620400
       113           56.500000         0.433419884       386.618675571     -4559.967010318     -4558.923342598       117.446172121
       114           57.000000         0.415804760       370.905654579     -4559.961365211     -4558.923316915       117.380074466
       115           57.500000         0.395985550       353.226547126     -4559.956615609     -4558.923266980       118.021764220
       116           58.000000         0.385182442       343.589971972     -4559.953992125     -4558.923304065       117.895348527
       117           58.500000         0.381568342       340.366126847     -4559.953498907     -4558.923215294       119.064379088
       118           59.000000         0.377472568       336.712619532     -4559.954972178     -4558.923248432       117.634316564
       119           59.500000         0.379029371       338.101316753     -4559.957714420     -4558.923373719       120.277065942
       120           60.000000         0.372648107       332.409109920     -4559.960667385     -4558.923349995       117.673866147
       121           60.500000         0.375580728       335.025062169     -4559.963430480     -4558.923348211       118.142038338
       122           61.000000         0.384361587       342.857753690     -4559.965923956     -4558.923340085       117.352999273
       123           61.500000         0.376676105       336.002159050     -4559.968402775     -4558.923214033       117.211773094
       124           62.000000         0.368870413       329.039335645     -4559.971880586     -4558.923277666       118.392788217
       125           62.500000         0.366991375       327.363198153     -4559.976487809     -4558.923203950       117.615577717
       126           63.000000         0.376862973       336.168848733     -4559.982291734     -4558.923312167       128.736289786
       127           63.500000         0.381437709       340.249599571     -4559.988126489     -4558.923430845       118.721749724
       128           64.000000         0.393834539       351.307804435     -4559.992732987     -4558.923574945       117.650046680
       129           64.500000         0.403023349       359.504395950     -4559.994902058     -4558.923518261       117.662168738
       130           65.000000         0.398463029       355.436504538     -4559.994921918     -4558.923515550       120.685198109
       131           65.500000         0.403680151       360.090275375     -4559.993153980     -4558.923360591       123.990746568
       132           66.000000         0.395996548       353.236357354     -4559.990413139     -4558.923305211       121.150790837
       133           66.500000         0.388757538       346.779024153     -4559.987478860     -4558.923298962       122.634994060
       134           67.000000         0.382490845       341.189016566     -4559.985080791     -4558.923362898       118.870442904
       135           67.500000         0.373029200       332.749051969     -4559.983778947     -4558.923361494       118.186103178
       136           68.000000         0.372630074       332.393024158     -4559.983627983     -4558.923388139       117.933574142
       137           68.500000         0.364414999       325.065022533     -4559.984090712     -4558.923352694       116.796493066
       138           69.000000         0.367733128       328.024855733     -4559.984888916     -4558.923452166       118.160137004
       139           69.500000         0.366634047       327.044454923     -4559.985458178     -4558.923430839       114.403986466
       140           70.000000         0.370494158       330.487746440     -4559.986063870     -4558.923413419       118.301893279
       141           70.500000         0.363304940       324.074828773     -4559.987204178     -4558.923323758       118.074848338
       142           71.000000         0.362219679       323.106755674     -4559.989958146     -4558.923166594       118.279111712
       143           71.500000         0.371980885       331.813934677     -4559.995412934     -4558.923080733       117.981595316
       144           72.000000         0.379360232       338.396451301     -4560.003850908     -4558.923313581       118.146698138
       145           72.500000         0.400323592       357.096161908     -4560.013686085     -4558.923447937       117.827480463
       146           73.000000         0.410031505       365.755802794     -4560.022819371     -4558.923604179       117.873908759
       147           73.500000         0.416721370       371.723288245     -4560.029122222     -4558.923582870       118.073255330
       148           74.000000         0.415718415       370.828632953     -4560.031774197     -4558.923554608       114.988943691
       149           74.500000         0.405518429       361.730054196     -4560.031528749     -4558.923464967       119.251396097
       150           75.000000         0.402113669       358.692944036     -4560.029806055     -4558.923311294       119.037524958
       151           75.500000         0.406361752       362.482313832     -4560.027892375     -4558.923256701       118.260480486
       152           76.000000         0.395253251       352.573322448     -4560.026249328     -4558.923269600       119.811053846
       153           76.500000         0.402620374       359.144935001     -4560.024885510     -4558.923205228       118.018865152
       154           77.000000         0.404597160       360.908264774     -4560.023949894     -4558.923144608       118.220898978
       155           77.500000         0.403239136       359.696882025     -4560.023200925     -4558.923124557       118.104084792
       156           78.000000         0.396086327       353.316442096     -4560.022366514     -4558.923243071       115.627226938
       157           78.500000         0.389471902       347.416250593     -4560.020799791     -4558.923213439       118.460112423
       158           79.000000         0.378514209       337.641782744     -4560.018638029     -4558.923110971       118.402178730
       159           79.500000         0.375349159       334.818498964     -4560.016552004     -4558.923008636       118.327458060
       160           80.000000         0.370415161       330.417279473     -4560.015691317     -4558.923042938       119.335754590
       161           80.500000         0.367151379       327.505924928     -4560.016886319     -4558.922930006       118.232192699
       162           81.000000         0.368216893       328.456383402     -4560.020888223     -4558.923104966       119.513638956
       163           81.500000         0.370242644       330.263391105     -4560.026640266     -4558.923036984       121.410806528
       164           82.000000         0.370624204       330.603749957     -4560.033992865     -4558.923239368       121.885310553
       165           82.500000         0.380009365       338.975490140     -4560.041291429     -4558.923378020       117.994800283
       166           83.000000         0.391510216       349.234465193     -4560.046912938     -4558.923525268       120.541272359
       167           83.500000         0.389366951       347.322632687     -4560.049381691     -4558.923619142       118.939179871
       168           84.000000         0.383687775       342.256700930     -4560.048248752     -4558.923413682       118.868690932
       169           84.500000         0.387632762       345.775703536     -4560.044994668     -4558.923339075       118.615422704
       170           85.000000         0.389910768       347.807727530     -4560.040750830     -4558.923105662       118.706231119
       171           85.500000         0.378236838       337.394362905     -4560.037244959     -4558.923183888       118.189705786
       172           86.000000         0.364374644       325.029025411     -4560.034878921     -4558.923184446       115.412385797
       173           86.500000         0.356237059       317.770146255     -4560.033809124     -4558.923201775       118.541150075
       174           87.000000         0.359042129       320.272322067     -4560.033178874     -4558.923272091       112.513598655
       175           87.500000         0.362510098       323.365815504     -4560.031708078     -4558.923372553       116.907301173
       176           88.000000         0.367095998       327.456524233     -4560.028698725     -4558.923461618       108.806016036
       177           88.500000         0.348245308       310.641354950     -4560.023768825     -4558.923308278       115.387340299
       178           89.000000         0.346807638       309.358926034     -4560.018579675     -4558.923081424       109.638826398
       179           89.500000         0.344148916       306.987296229     -4560.014631786     -4558.922729482       116.276005075
       180           90.000000         0.342403432       305.430291769     -4560.013523619     -4558.922726576       109.560749583
       181           90.500000         0.342531477       305.544509833     -4560.016251540     -4558.922829546       119.783003180
       182           91.000000         0.351698931       313.722051431     -4560.023209532     -4558.922926031       118.739342998
       183           91.500000         0.365224239       325.786880180     -4560.033432108     -4558.923057334       115.663685930
       184           92.000000         0.382731699       341.403862600     -4560.044630783     -4558.923249905       122.602852382
       185           92.500000         0.386811645       345.043250980     -4560.054103939     -4558.923492552       115.958328293
       186           93.000000         0.395055684       352.397089268     -4560.059889635     -4558.923530117       115.758709643
       187           93.500000         0.391861757       349.548046050     -4560.061684963     -4558.923426459       129.655818006
       188           94.000000         0.391002252       348.781351822     -4560.060750517     -4558.923156776       115.991028992
       189           94.500000         0.381292315       340.119905707     -4560.059243474     -4558.922905515       115.676627654
       190           95.000000         0.389429739       347.378640754     -4560.059060474     -4558.922983606       109.286020113
       191           95.500000         0.393283320       350.816106685     -4560.060185781     -4558.923066366       116.457544585
       192           96.000000         0.395496901       352.790662561     -4560.061952185     -4558.923022216       110.154835989
       193           96.500000         0.399581369       356.434085445     -4560.063420869     -4558.922986195       116.766967456
       194           97.000000         0.409452860       365.239640584     -4560.063695111     -4558.923103561       109.312146172
       195           97.500000         0.396916319       354.056810728     -4560.062382759     -4558.923044464       116.698857933
       196           98.000000         0.395099495       352.436169093     -4560.060387708     -4558.923009562       109.355077682
       197           98.500000         0.398583709       355.544153379     -4560.058076998     -4558.922780907       116.465507627
       198           99.000000         0.402315512       358.872991642     -4560.056228085     -4558.922822246       109.169670048
       199           99.500000         0.394677252       352.059520529     -4560.054909501     -4558.922815083       116.176770444
       200          100.000000         0.390429887       348.270791076     -4560.054610375     -4558.922927326       115.853943226
       201          100.500000         0.393430918       350.947767576     -4560.055258535     -4558.922833297       116.192992927
       202          101.000000         0.397930546       354.961519545     -4560.057393698     -4558.922836382       116.085665245
       203          101.500000         0.400958793       357.662773314     -4560.061253514     -4558.923022707       116.168528633
       204          102.000000         0.404241299       360.590829786     -4560.066256354     -4558.923120690       116.253029419
       205          102.500000         0.417421142       372.347497982     -4560.071320905     -4558.923095207       117.061812950
       206          103.000000         0.418108538       372.960667554     -4560.075081109     -4558.923140739       117.387032501
       207          103.500000         0.434241585       387.351648220     -4560.076577553     -4558.923288114       116.734758360
       208          104.000000         0.435566772       388.533740201     -4560.075278679     -4558.923124844       116.268347111
       209          104.500000         0.421991233       376.424104512     -4560.072807151     -4558.922981537       118.690936046
       210          105.000000         0.424477136       378.641576918     -4560.070844916     -4558.923050436       116.378159412
       211          105.500000         0.424394108       378.567514615     -4560.068790135     -4558.923068412       116.786863270
       212          106.000000         0.418097599       372.950910329     -4560.065802459     -4558.923026285       117.191732930
       213          106.500000         0.408691439       364.560438517     -4560.062050059     -4558.922810105       120.350864932
       214          107.000000         0.410988023       366.609034288     -4560.058839642     -4558.922821417       114.113189694
       215          107.500000         0.404378114       360.712871804     -4560.056498520     -4558.922727538       120.540398273
       216          108.000000         0.406330264       362.454225772     -4560.055597177     -4558.922721889       113.423819906
       217          108.500000         0.400667752       357.403159386     -4560.056328008     -4558.922726881       120.493740467
       218          109.000000         0.404064369       360.433005148     -4560.058653426     -4558.922757691       113.683157585
       219          109.500000         0.401105387       357.793537432     -4560.062109541     -4558.922884866       121.447339071
       220          110.000000         0.412112856       367.612407212     -4560.066012430     -4558.922859527       114.816022904
       221          110.500000         0.418956366       373.716945772     -4560.069902197     -4558.922816720       120.259096765
       222          111.000000         0.425732130       379.761055262     -4560.073380751     -4558.922864092       113.844979050
       223          111.500000         0.415617391       370.738518158     -4560.075983221     -4558.922965118       121.278133353
       224          112.000000         0.416191754       371.250859989     -4560.077305216     -4558.922873550       113.793696491
       225          112.500000         0.409486387       365.269546681     -4560.077110781     -4558.922722382       120.839387415
       226          113.000000         0.414735403       369.951768193     -4560.075162458     -4558.922658471       120.201140569
       227          113.500000         0.405161505       361.411671380     -4560.071940078     -4558.922589702       120.438281421