#     Step Nr.          Time[fs]        Kin.[a.u.]          Temp[K]            Pot.[a.u.]        Cons Qty[a.u.]        UsedTime[s]
         0            0.000000         0.369947368       330.000000000     -4559.295399625     -4558.920692595         0.000000000
         1            0.500000         0.386605570       344.859429057     -4559.313752424     -4558.920958092       921.367228622
         2            1.000000         0.408665705       364.537483087     -4559.342850521     -4558.921272394       133.619533181
         3            1.500000         0.437471484       390.232778825     -4559.379047263     -4558.921484156       128.567317899
         4            2.000000         0.470159160       419.390799690     -4559.420017826     -4558.921524534       140.773146921
         5            2.500000         0.514260635       458.730144363     -4559.465497195     -4558.921449546       129.885149232
         6            3.000000         0.549675009       490.320430599     -4559.516128670     -4558.921680161       123.755696900
         7            3.500000         0.589059110       525.451788235     -4559.569187151     -4558.922211919       128.445829558
         8            4.000000         0.632964075       564.615841998     -4559.618464673     -4558.922834449       123.773408661
         9            4.500000         0.650135887       579.933420484     -4559.656081050     -4558.923325700       129.279464612
        10            5.000000         0.667965701       595.837949318     -4559.676986625     -4558.923315326       124.380220994
        11            5.500000         0.653822295       583.221765871     -4559.681516225     -4558.923141911       123.978162388
        12            6.000000         0.614644243       548.274207644     -4559.672844244     -4558.922859060       127.958153647
        13            6.500000         0.594013042       529.870789000     -4559.655676785     -4558.922687350       123.976744160
        14            7.000000         0.562982574       502.191028510     -4559.633590185     -4558.922523166       130.142328164
        15            7.500000         0.541156032       482.721342937     -4559.609817254     -4558.922162463       124.955797141
        16            8.000000         0.526015908       469.216067883     -4559.589505120     -4558.921665691       133.043560168
        17            8.500000         0.511671510       456.420596194     -4559.577766078     -4558.922073807       119.330257495
        18            9.000000         0.497751155       444.003377982     -4559.574362337     -4558.921918984       132.754948026
        19            9.500000         0.490903081       437.894766787     -4559.580806284     -4558.921959625       123.652214587
        20           10.000000         0.507960739       453.110518048     -4559.596275524     -4558.922095263       132.531977218
        21           10.500000         0.510907200       455.738816997     -4559.617739858     -4558.922296420       123.461774639
        22           11.000000         0.528060317       471.039719709     -4559.643084876     -4558.922356155       123.996998674
        23           11.500000         0.537121150       479.122152167     -4559.672039682     -4558.922417618       133.104263531
        24           12.000000         0.557416418       497.225913168     -4559.705228477     -4558.922445202       124.142709039
        25           12.500000         0.592541581       528.558217395     -4559.742797537     -4558.922745929       132.839691267
        26           13.000000         0.608662345       542.938242294     -4559.779414330     -4558.923061446       124.341086565
        27           13.500000         0.631471946       563.284834861     -4559.809908032     -4558.923418480       127.446475680
        28           14.000000         0.639628577       570.560702872     -4559.829020788     -4558.923528566       128.196653898
        29           14.500000         0.620308392       553.326734302     -4559.835098746     -4558.923604835       129.505748085
        30           15.000000         0.598097226       533.513957686     -4559.828724294     -4558.923492555       128.736454844
        31           15.500000         0.576947381       514.647898663     -4559.811966283     -4558.923350781       128.586155124
        32           16.000000         0.542482199       483.904309419     -4559.787730399     -4558.923020904       128.032189663
        33           16.500000         0.509852280       454.797808338     -4559.759221392     -4558.922683679       128.155533887
        34           17.000000         0.484284046       431.990463931     -4559.731007116     -4558.922351385       128.164714267
        35           17.500000         0.450734287       402.063448460     -4559.707070800     -4558.922185496       129.392429387
        36           18.000000         0.432088186       385.430776310     -4559.689591291     -4558.922198826       129.615790231
        37           18.500000         0.420936289       375.483074302     -4559.679006616     -4558.922205515       129.570856759
        38           19.000000         0.411926305       367.445999540     -4559.675388709     -4558.922335843       128.912028645
        39           19.500000         0.410486475       366.161643953     -4559.676854696     -4558.922450363       128.873404687
        40           20.000000         0.410418570       366.101071631     -4559.681013061     -4558.922351686       129.835298255
        41           20.500000         0.424419647       378.590295885     -4559.688481395     -4558.922218479       129.046737889
        42           21.000000         0.432525945       385.821265711     -4559.701362661     -4558.922151534       134.622610935
        43           21.500000         0.448585352       400.146558286     -4559.721556890     -4558.922185501       129.139707790
        44           22.000000         0.467666309       417.167130064     -4559.749337951     -4558.922365883       134.326702308
        45           22.500000         0.497446124       443.731284669     -4559.783235259     -4558.922617229       128.918445053
        46           23.000000         0.526649526       469.781267331     -4559.819123508     -4558.923372881       135.962783483
        47           23.500000         0.553521577       493.751641426     -4559.849908478     -4558.923534733       119.769975439
        48           24.000000         0.563861004       502.974604859     -4559.872226470     -4558.923685368       129.488347232
        49           24.500000         0.573675953       511.729723766     -4559.883994567     -4558.923542654       120.077203916
        50           25.000000         0.567930429       506.604608190     -4559.884921237     -4558.923257765       129.980837721
        51           25.500000         0.551271807       491.744804544     -4559.877369346     -4558.922997874       115.632381289
        52           26.000000         0.524990790       468.301644079     -4559.865349379     -4558.922703354       134.527408461
        53           26.500000         0.508943110       453.986811430     -4559.853338406     -4558.922576226       129.650399094
        54           27.000000         0.490936157       437.924271277     -4559.843409449     -4558.922430708       134.818765715
        55           27.500000         0.480080997       428.241264959     -4559.836229759     -4558.922553104       130.168172027
        56           28.000000         0.466278589       415.929258083     -4559.830622661     -4558.922585631       129.123232353
        57           28.500000         0.455289865       406.127109916     -4559.825751957     -4558.922612670       131.296511427
        58           29.000000         0.450204930       401.591252576     -4559.821211438     -4558.922615133       132.605167765
        59           29.500000         0.449636323       401.084044000     -4559.817599658     -4558.922514052       129.175037335
        60           30.000000         0.450412010       401.775971362     -4559.816577422     -4558.922423239       129.400420095
        61           30.500000         0.449851191       401.275710739     -4559.820095791     -4558.922385345       129.687420627
        62           31.000000         0.457166660       407.801245697     -4559.829422117     -4558.922392526       128.662772381
        63           31.500000         0.460991325       411.212918864     -4559.844524208     -4558.922516365       130.452884586
        64           32.000000         0.472394225       421.384520168     -4559.863860877     -4558.922889656       128.958775102
        65           32.500000         0.478353436       426.700248234     -4559.884322777     -4558.923259074       129.822188699
        66           33.000000         0.482906749       430.761888791     -4559.902164214     -4558.923387019       129.552316870
        67           33.500000         0.477043266       425.531552119     -4559.915182098     -4558.923579251       130.201289718
        68           34.000000         0.488563486       435.807804173     -4559.921552635     -4558.923447325       129.973016164
        69           34.500000         0.486687837       434.134689981     -4559.922092150     -4558.923356635       130.242862030
        70           35.000000         0.482362121       430.276070376     -4559.918242866     -4558.923215603       129.571924678
        71           35.500000         0.470481305       419.678159554     -4559.912416348     -4558.922924636       129.344372646
        72           36.000000         0.468698145       418.087546877     -4559.906712173     -4558.922859412       131.838199814
        73           36.500000         0.462495936       412.555060146     -4559.901367157     -4558.922923054       129.517980345
        74           37.000000         0.460655630       410.913472535     -4559.895661352     -4558.923022300       129.100569434
        75           37.500000         0.451521822       402.765944800     -4559.888897374     -4558.923026880       129.980542732
        76           38.000000         0.429836553       383.422277274     -4559.881026815     -4558.922802052       128.648439025
        77           38.500000         0.417817224       372.700810201     -4559.873780858     -4558.922735636       136.825153173
        78           39.000000         0.420091487       374.729495685     -4559.868345122     -4558.922682206       129.423546468
        79           39.500000         0.421304491       375.811518123     -4559.866149075     -4558.922722808       128.716314869
        80           40.000000         0.422721168       377.075220272     -4559.867697782     -4558.922708314       129.296217500
        81           40.500000         0.428363589       382.108365471     -4559.872790218     -4558.922802204       129.727101747
        82           41.000000         0.430989745       384.450946110     -4559.880377110     -4558.922877853       129.538716643
        83           41.500000         0.442032038       394.300878973     -4559.889542402     -4558.922936151       130.297711860
        84           42.000000         0.458299380       408.811653437     -4559.899328670     -4558.923076687       130.582240475
        85           42.500000         0.464525110       414.365121298     -4559.908494341     -4558.923082621       131.349234545
        86           43.000000         0.466121621       415.789239083     -4559.916711536     -4558.923115879       129.369698177
        87           43.500000         0.471063572       420.197552185     -4559.923897483     -4558.922999935       129.862875293
        88           44.000000         0.478686522       426.997366928     -4559.930284514     -4558.923091470       129.408762059
        89           44.500000         0.476101392       424.691382481     -4559.935347451     -4558.923109308       129.832206316
        90           45.000000         0.471633998       420.706383043     -4559.938758270     -4558.923142307       129.021160135
        91           45.500000         0.477334149       425.791024612     -4559.940039821     -4558.923173454       138.412095945
        92           46.000000         0.467753761       417.245139256     -4559.938755950     -4558.923211665       129.438420819
        93           46.500000         0.451845242       403.054441432     -4559.934789990     -4558.923202119       129.503993734
        94           47.000000         0.451693396       402.918991837     -4559.928648098     -4558.923126384       133.923187263
        95           47.500000         0.438104936       390.797830589     -4559.921477800     -4558.923024963       129.834166191
        96           48.000000         0.426573112       380.511226707     -4559.914949289     -4558.923028739       129.329618122
        97           48.500000         0.422417251       376.804120886     -4559.910352554     -4558.923124771       134.515831172
        98           49.000000         0.412639389       368.082084525     -4559.908537242     -4558.923003430       129.274641938
        99           49.500000         0.418466462       373.279942790     -4559.910512988     -4558.923013346       130.458930219
       100           50.000000         0.426093083       380.083032201     -4559.915912144     -4558.923178847       131.355301375
       101           50.500000         0.437198279       389.989075311     -4559.922982288     -4558.923289614       131.190312109
       102           51.000000         0.445698047       397.571028135     -4559.930141502     -4558.923415876       129.764368165
       103           51.500000         0.441021947       393.399859082     -4559.936274208     -4558.923426655       130.076553170
       104           52.000000         0.445555376       397.443762443     -4559.941073348     -4558.923270733       130.191283026
       105           52.500000         0.453512367       404.541547957     -4559.945752560     -4558.923239986       129.713309767
       106           53.000000         0.463552715       413.497726783     -4559.951387735     -4558.923262135       129.793060197
       107           53.500000         0.463509714       413.459368918     -4559.958035629     -4558.923250448       129.466114449
       108           54.000000         0.453099345       404.173124894     -4559.965201177     -4558.923368716       130.834124753
       109           54.500000         0.464299682       414.164035344     -4559.971452966     -4558.923442181       129.795238785
       110           55.000000         0.462289460       412.370879467     -4559.975168041     -4558.923647501       130.171525051
       111           55.500000         0.447211908       398.921420581     -4559.975161078     -4558.923628967       130.022680173
       112           56.000000         0.434974263       388.005211216     -4559.971960027     -4558.923381679       129.939075304
       113           56.500000         0.433453496       386.648658006     -4559.967028081     -4558.923337363       134.565115728
       114           57.000000         0.415880580       370.973287171     -4559.961427135     -4558.923310207       130.409788712
       115           57.500000         0.396079669       353.310503285     -4559.956693509     -4558.923252204       129.968932112
       116           58.000000         0.385266169       343.664658080     -4559.954072636     -4558.923297140       130.432790352
       117           58.500000         0.381627714       340.419087884     -4559.953562460     -4558.923212012       130.210962034
       118           59.000000         0.377503442       336.740159741     -4559.954999922     -4558.923235550       130.351934738
       119           59.500000         0.379026636       338.098877639     -4559.957715416     -4558.923367114       129.928844728
       120           60.000000         0.372632693       332.395359527     -4559.960659279     -4558.923347749       131.183317571
       121           60.500000         0.375575689       335.020567951     -4559.963426325     -4558.923340225       129.937948899
       122           61.000000         0.384375996       342.870606634     -4559.965932423     -4558.923325342       130.824668171
       123           61.500000         0.376699508       336.023035691     -4559.968441267     -4558.923219268       130.188881404
       124           62.000000         0.368902979       329.068384820     -4559.971931998     -4558.923284847       132.592696324
       125           62.500000         0.367016570       327.385672686     -4559.976515354     -4558.923193010       130.243774177
       126           63.000000         0.376856153       336.162765415     -4559.982287214     -4558.923300710       129.565618320
       127           63.500000         0.381395998       340.212392959     -4559.988090203     -4558.923423619       130.658062321
       128           64.000000         0.393777109       351.256576113     -4559.992665149     -4558.923553627       130.466218243
       129           64.500000         0.402958484       359.446534951     -4559.994843050     -4558.923515451       130.714057362
       130           65.000000         0.398405904       355.385548076     -4559.994867391     -4558.923512611       130.739122013
       131           65.500000         0.403650341       360.063684778     -4559.993119496     -4558.923352021       130.227148148
       132           66.000000         0.396000366       353.239762921     -4559.990411582     -4558.923296333       130.070956545
       133           66.500000         0.388800655       346.817485737     -4559.987496775     -4558.923268884       130.597277192
       134           67.000000         0.382545331       341.237619156     -4559.985113818     -4558.923333919       129.914300351
       135           67.500000         0.373064520       332.780557538     -4559.983808825     -4558.923345823       130.160876665
       136           68.000000         0.372644703       332.406072763     -4559.983632813     -4558.923367089       129.516650496
       137           68.500000         0.364405655       325.056687460     -4559.984077655     -4558.923337795       131.036644293
       138           69.000000         0.367715612       328.009231677     -4559.984865043     -4558.923435496       130.341100127
       139           69.500000         0.366612237       327.025000064     -4559.985431897     -4558.923417338       130.784340279
       140           70.000000         0.370477364       330.472765646     -4559.986058886     -4558.923417297       129.660590808
       141           70.500000         0.363302329       324.072500336     -4559.987218912     -4558.923333913       130.350995586
       142           71.000000         0.362219976       323.107020894     -4559.989976248     -4558.923177387       130.054145748
       143           71.500000         0.371977974       331.811338410     -4559.995429780     -4558.923093555       130.372444886
       144           72.000000         0.379341995       338.380183740     -4560.003842931     -4558.923317388       130.421693182
       145           72.500000         0.400279150       357.056518866     -4560.013648821     -4558.923449702       130.096274434
       146           73.000000         0.409970086       365.701015648     -4560.022768450     -4558.923611469       130.553990842
       147           73.500000         0.416652744       371.662071794     -4560.029062954     -4558.923591914       130.164049354
       148           74.000000         0.415663830       370.779942634     -4560.031723452     -4558.923561080       129.642053757
       149           74.500000         0.405505554       361.718569638     -4560.031508370     -4558.923462265       129.687919509
       150           75.000000         0.402133950       358.711035012     -4560.029813853     -4558.923303311       130.562846175
       151           75.500000         0.406384970       362.503024936     -4560.027913884     -4558.923258575       129.786256193
       152           76.000000         0.395273546       352.591426398     -4560.026286917     -4558.923289186       130.094910547
       153           76.500000         0.402632758       359.155981699     -4560.024900574     -4558.923209669       126.926573952
       154           77.000000         0.404583052       360.895679953     -4560.023945215     -4558.923155853       130.628720812
       155           77.500000         0.403213069       359.673629463     -4560.023191176     -4558.923143874       126.819072709
       156           78.000000         0.396064268       353.296764769     -4560.022336238     -4558.923239434       129.634044881
       157           78.500000         0.389488107       347.430705858     -4560.020811834     -4558.923214227       129.349106978
       158           79.000000         0.378565208       337.687275085     -4560.018693552     -4558.923118538       126.416731265
       159           79.500000         0.375403313       334.866804701     -4560.016627381     -4558.923030347       126.527374991
       160           80.000000         0.370469461       330.465716773     -4560.015765224     -4558.923060229       126.493186668
       161           80.500000         0.367187820       327.538431107     -4560.016934049     -4558.922936285       125.820516923
       162           81.000000         0.368203444       328.444387077     -4560.020888207     -4558.923113128       127.305420114
       163           81.500000         0.370182264       330.209531064     -4560.026604713     -4558.923058622       119.879055063
       164           82.000000         0.370541780       330.530226346     -4560.033910472     -4558.923240353       119.873252233
       165           82.500000         0.379926365       338.901452272     -4560.041207383     -4558.923381577       116.670750838
       166           83.000000         0.391445019       349.176308283     -4560.046837535     -4558.923522538       118.877008458
       167           83.500000         0.389327972       347.287861932     -4560.049354818     -4558.923641430       118.657144178
       168           84.000000         0.383684858       342.254098730     -4560.048246620     -4558.923425615       118.455300739
       169           84.500000         0.387649688       345.790801706     -4560.045011459     -4558.923349768       118.560409042
       170           85.000000         0.389923223       347.818837546     -4560.040771776     -4558.923124343       119.002697836
       171           85.500000         0.378230910       337.389074446     -4560.037247835     -4558.923202819       119.015395776
       172           86.000000         0.364338271       324.996580169     -4560.034852387     -4558.923206069       119.079081513
       173           86.500000         0.356214027       317.749601787     -4560.033781653     -4558.923211076       112.626522156
       174           87.000000         0.359043084       320.273173145     -4560.033144223     -4558.923250827       115.537991976
       175           87.500000         0.362548383       323.399966028     -4560.031662487     -4558.923302476       109.142982539
       176           88.000000         0.367085269       327.446953215     -4560.028657707     -4558.923444427       115.341555025
       177           88.500000         0.348320694       310.708600035     -4560.023768919     -4558.923243057       108.930803301
       178           89.000000         0.346901400       309.442563027     -4560.018629838     -4558.923044413       119.072355653
       179           89.500000         0.344059238       306.907301878     -4560.014684728     -4558.922878162       112.308349442
       180           90.000000         0.342300176       305.338185169     -4560.013643435     -4558.922960565       116.199514171
       181           90.500000         0.342546401       305.557822476     -4560.016377070     -4558.922953287       115.869298706
       182           91.000000         0.351758576       313.775255745     -4560.023332625     -4558.923000675       109.689445666
       183           91.500000         0.365219770       325.782893233     -4560.033434865     -4558.923073925       116.046540391
       184           92.000000         0.382620815       341.304952561     -4560.044506225     -4558.923247689       108.800480668
       185           92.500000         0.386588004       344.843759651     -4560.053905138     -4558.923537545       115.705543362
       186           93.000000         0.394817609       352.184722060     -4560.059695883     -4558.923604929       112.456353701
       187           93.500000         0.391747381       349.446020956     -4560.061582396     -4558.923479008       117.501427334
       188           94.000000         0.391027967       348.804289785     -4560.060761905     -4558.923186215       108.982654877
       189           94.500000         0.381349512       340.170926246     -4560.059326330     -4558.922972605       115.556160352
       190           95.000000         0.389568756       347.502646015     -4560.059152916     -4558.922975059       108.762057325
       191           95.500000         0.393543826       351.048483277     -4560.060269753     -4558.922918517       116.546965810
       192           96.000000         0.395624547       352.904525658     -4560.061982283     -4558.922943715       109.800914902
       193           96.500000         0.399480133       356.343780426     -4560.063375090     -4558.923060558       116.313904928
       194           97.000000         0.409302380       365.105409674     -4560.063620055     -4558.923202247       117.095294801
       195           97.500000         0.396864716       354.010779653     -4560.062287772     -4558.923030623       110.046918106
       196           98.000000         0.395025592       352.370246780     -4560.060310759     -4558.923039098       116.505909675
       197           98.500000         0.398503876       355.472941451     -4560.058059034     -4558.922878494       112.994167323
       198           99.000000         0.402312920       358.870679775     -4560.056298070     -4558.922932028       116.440529594
       199           99.500000         0.394723397       352.100683052     -4560.055030347     -4558.922926011       120.453065693
       200          100.000000         0.390535629       348.365115104     -4560.054744772     -4558.922988342       114.310863867
       201          100.500000         0.393505783       351.014548373     -4560.055357161     -4558.922885143       116.520309393
       202          101.000000         0.397935682       354.966101667     -4560.057427451     -4558.922891265       113.275250955
       203          101.500000         0.400928883       357.636092976     -4560.061235792     -4558.923061749       116.374286060
       204          102.000000         0.404188239       360.543499617     -4560.066223321     -4558.923169566       116.162627742
       205          102.500000         0.417401945       372.330373307     -4560.071325100     -4558.923148930       116.304170005
       206          103.000000         0.418135388       372.984618220     -4560.075134913     -4558.923197507       116.866885299
       207          103.500000         0.434285546       387.390862215     -4560.076663966     -4558.923359537       117.087881173
       208          104.000000         0.435618820       388.580167728     -4560.075368253     -4558.923189557       118.524257329
       209          104.500000         0.422034415       376.462623351     -4560.072892146     -4558.923048027       119.261350430
       210          105.000000         0.424491060       378.653996776     -4560.070898384     -4558.923113850       119.073021382
       211          105.500000         0.424364670       378.541254706     -4560.068798116     -4558.923130134       120.745101156
       212          106.000000         0.418044801       372.903812873     -4560.065805035     -4558.923108107       120.854997479
       213          106.500000         0.408644414       364.518491725     -4560.062023687     -4558.922859973       120.005884270
       214          107.000000         0.410922703       366.550767825     -4560.058804442     -4558.922883090       120.898376477
       215          107.500000         0.404314292       360.655940951     -4560.056483536     -4558.922811209       123.323990205
       216          108.000000         0.406322477       362.447279852     -4560.055622823     -4558.922791181       116.745288517
       217          108.500000         0.400725634       357.454791243     -4560.056406810     -4558.922782226       123.950827615
       218          109.000000         0.404142637       360.502822079     -4560.058752622     -4558.922809547       117.579574839
       219          109.500000         0.401163631       357.845492101     -4560.062228388     -4558.922972481       122.712228153
       220          110.000000         0.412124562       367.622848441     -4560.066098022     -4558.922959036       117.229156570
       221          110.500000         0.418891303       373.658908870     -4560.069915773     -4558.922921960       120.002120917
       222          111.000000         0.425616211       379.657652923     -4560.073345059     -4558.922974725       120.014471964
       223          111.500000         0.415549762       370.678191489     -4560.075940472     -4558.923025691       122.457774142
       224          112.000000         0.416070006       371.142258819     -4560.077297664     -4558.923028188       124.867357355
       225          112.500000         0.409302283       365.105322923     -4560.077157556     -4558.923002451       123.320413297
       226          113.000000         0.414621692       369.850335611     -4560.075267405     -4558.922931841       123.838527525
       227          113.500000         0.405103325       361.359773331     -4560.072032375     -4558.922800207       133.624094542